version 2
run Clique_Example-0-20170922-14:50:03-24551
attr configname Clique_Example
attr datetime 20170922-14:50:03
attr experiment Clique_Example
attr inifile VADs_Projekt_jdrees.ini
attr iterationvars ""
attr iterationvars2 $repetition=0
attr measurement ""
attr network oversim.underlay.simpleunderlay.SimpleUnderlayNetwork
attr processid 24551
attr repetition 0
attr replication #0
attr resultdir results
attr runnumber 0
attr seedset 0

vector 1  SimpleUnderlayNetwork.globalObserver.globalStatistics  "GlobalNodeList: Number of nodes"  ETV
1	400	50	5
1	401	100	5
1	402	150	5
1	403	200	5
1	404	250	5
1	405	300	5
1	406	350	5
1	407	400	5
1	408	450	5
1	409	500	5
1	410	550	5
1	411	600	5
1	412	650	5
1	413	700	5
1	414	750	5
1	415	800	5
1	416	850	5
1	417	900	5
1	418	950	5
1	419	1000	5
1	420	1050	5
1	421	1100	5
1	422	1150	5
1	423	1200	5
1	424	1250	5
1	425	1300	5
1	426	1350	5
1	427	1400	5
1	428	1450	5
1	429	1500	5
1	430	1550	5
1	431	1600	5
1	432	1650	5
1	433	1700	5
1	434	1750	5
1	435	1800	5
1	436	1850	5
1	437	1900	5
1	438	1950	5
1	439	2000	5
1	440	2050	5
1	441	2100	5
1	442	2150	5
1	443	2200	5
1	444	2250	5
1	445	2300	5
1	446	2350	5
1	447	2400	5
1	448	2450	5
1	449	2500	5
1	450	2550	5
1	451	2600	5
1	452	2650	5
1	453	2700	5
1	454	2750	5
1	455	2800	5
1	456	2850	5
1	457	2900	5
1	458	2950	5
1	459	3000	5
1	460	3050	5
1	461	3100	5
1	462	3150	5
1	463	3200	5
1	464	3250	5
1	465	3300	5
1	466	3350	5
1	467	3400	5
1	468	3450	5
1	469	3500	5
1	470	3550	5
1	471	3600	5
1	472	3650	5
1	473	3700	5
1	474	3750	5
1	475	3800	5
1	476	3850	5
1	477	3900	5
1	478	3950	5
1	479	4000	5
1	480	4050	5
1	481	4100	5
1	482	4150	5
1	483	4200	5
1	484	4250	5
1	485	4300	5
1	486	4350	5
1	487	4400	5
1	488	4450	5
1	489	4500	5
1	490	4550	5
1	491	4600	5
1	492	4650	5
1	493	4700	5
1	494	4750	5
1	495	4800	5
1	496	4850	5
1	497	4900	5
1	498	4950	5
1	499	5000	5
1	500	5050	5
1	501	5100	5
1	502	5150	5
1	503	5200	5
1	504	5250	5
1	505	5300	5
1	506	5350	5
1	507	5400	5
1	508	5450	5
1	509	5500	5
1	510	5550	5
1	511	5600	5
1	512	5650	5
1	513	5700	5
1	514	5750	5
1	515	5800	5
1	516	5850	5
1	517	5900	5
1	518	5950	5
1	519	6000	5
1	520	6050	5
1	521	6100	5
1	522	6150	5
1	523	6200	5
1	524	6250	5
1	525	6300	5
1	526	6350	5
1	527	6400	5
1	528	6450	5
1	529	6500	5
1	530	6550	5
1	531	6600	5
1	532	6650	5
1	533	6700	5
1	534	6750	5
1	535	6800	5
1	536	6850	5
1	537	6900	5
1	538	6950	5
1	539	7000	5
1	540	7050	5
1	541	7100	5
1	542	7150	5
1	543	7200	5
1	544	7250	5
1	545	7300	5
1	546	7350	5
1	547	7400	5
1	548	7450	5
1	549	7500	5
1	550	7550	5
1	551	7600	5
1	552	7650	5
1	553	7700	5
1	554	7750	5
1	555	7800	5
1	556	7850	5
1	557	7900	5
1	558	7950	5
1	559	8000	5
1	560	8050	5
1	561	8100	5
1	562	8150	5
1	563	8200	5
1	564	8250	5
1	565	8300	5
1	566	8350	5
1	567	8400	5
1	568	8450	5
1	569	8500	5
1	570	8550	5
1	571	8600	5
1	572	8650	5
1	573	8700	5
1	574	8750	5
1	575	8800	5
1	576	8850	5
1	577	8900	5
1	578	8950	5
1	579	9000	5
1	580	9050	5
1	581	9100	5
1	582	9150	5
1	583	9200	5
1	584	9250	5
1	585	9300	5
1	586	9350	5
1	587	9400	5
1	588	9450	5
1	589	9500	5
1	590	9550	5
1	591	9600	5
1	592	9650	5
1	593	9700	5
1	594	9750	5
1	595	9800	5
1	596	9850	5
1	597	9900	5
1	598	9950	5
1	599	10000	5
1	600	10050	5
1	601	10100	5
1	602	10150	5
1	603	10200	5
1	604	10250	5
1	605	10300	5
1	606	10350	5
1	607	10400	5
1	608	10450	5
1	609	10500	5
1	610	10550	5
1	611	10600	5
1	612	10650	5
1	613	10700	5
1	614	10750	5
1	615	10800	5
1	616	10850	5
1	617	10900	5
1	618	10950	5
1	619	11000	5
1	620	11050	5
1	621	11100	5
1	622	11150	5
1	623	11200	5
1	624	11250	5
1	625	11300	5
1	626	11350	5
1	627	11400	5
1	628	11450	5
1	629	11500	5
1	630	11550	5
1	631	11600	5
1	632	11650	5
1	633	11700	5
1	634	11750	5
1	635	11800	5
1	636	11850	5
1	637	11900	5
1	638	11950	5
1	639	12000	5
1	640	12050	5
1	641	12100	5
1	642	12150	5
1	643	12200	5
1	644	12250	5
1	645	12300	5
1	646	12350	5
1	647	12400	5
1	648	12450	5
1	649	12500	5
1	650	12550	5
1	651	12600	5
1	652	12650	5
1	653	12700	5
1	654	12750	5
1	655	12800	5
1	656	12850	5
1	657	12900	5
1	658	12950	5
1	659	13000	5
1	660	13050	5
1	661	13100	5
1	662	13150	5
1	663	13200	5
1	664	13250	5
1	665	13300	5
1	666	13350	5
1	667	13400	5
1	668	13450	5
1	669	13500	5
1	670	13550	5
1	671	13600	5
1	672	13650	5
1	673	13700	5
1	674	13750	5
1	675	13800	5
1	676	13850	5
1	677	13900	5
1	678	13950	5
1	679	14000	5
1	680	14050	5
1	681	14100	5
1	682	14150	5
1	683	14200	5
1	684	14250	5
1	685	14300	5
1	686	14350	5
1	687	14400	5
1	688	14450	5
1	689	14500	5
1	690	14550	5
1	691	14600	5
1	692	14650	5
1	693	14700	5
1	694	14750	5
1	695	14800	5
1	696	14850	5
1	697	14900	5
1	698	14950	5
1	699	15000	5
1	700	15050	5
1	701	15100	5
1	702	15150	5
1	703	15200	5
1	704	15250	5
1	705	15300	5
1	706	15350	5
1	707	15400	5
1	708	15450	5
1	709	15500	5
1	710	15550	5
1	711	15600	5
1	712	15650	5
1	713	15700	5
1	714	15750	5
1	715	15800	5
1	716	15850	5
1	717	15900	5
1	718	15950	5
1	719	16000	5
1	720	16050	5
1	721	16100	5
1	722	16150	5
1	723	16200	5
1	724	16250	5
1	725	16300	5
1	726	16350	5
1	727	16400	5
1	728	16450	5
1	729	16500	5
1	730	16550	5
1	731	16600	5
1	732	16650	5
1	733	16700	5
1	734	16750	5
1	735	16800	5
1	736	16850	5
1	737	16900	5
1	738	16950	5
1	739	17000	5
1	740	17050	5
1	741	17100	5
1	742	17150	5
1	743	17200	5
1	744	17250	5
1	745	17300	5
1	746	17350	5
1	747	17400	5
1	748	17450	5
1	749	17500	5
1	750	17550	5
1	751	17600	5
1	752	17650	5
1	753	17700	5
1	754	17750	5
1	755	17800	5
1	756	17850	5
1	757	17900	5
1	758	17950	5
1	759	18000	5
1	760	18050	5
1	761	18100	5
1	762	18150	5
1	763	18200	5
1	764	18250	5
1	765	18300	5
1	766	18350	5
1	767	18400	5
1	768	18450	5
1	769	18500	5
1	770	18550	5
1	771	18600	5
1	772	18650	5
1	773	18700	5
1	774	18750	5
1	775	18800	5
1	776	18850	5
1	777	18900	5
1	778	18950	5
1	779	19000	5
1	780	19050	5
1	781	19100	5
1	782	19150	5
1	783	19200	5
1	784	19250	5
1	785	19300	5
1	786	19350	5
1	787	19400	5
1	788	19450	5
1	789	19500	5
1	790	19550	5
1	791	19600	5
1	792	19650	5
1	793	19700	5
1	794	19750	5
1	795	19800	5
1	796	19850	5
1	797	19900	5
1	798	19950	5
1	799	20000	5
1	800	20050	5
1	801	20100	5
1	802	20150	5
1	803	20200	5
1	804	20250	5
1	805	20300	5
1	806	20350	5
1	807	20400	5
1	808	20450	5
1	809	20500	5
1	810	20550	5
1	811	20600	5
1	812	20650	5
1	813	20700	5
1	814	20750	5
1	815	20800	5
1	816	20850	5
1	817	20900	5
1	818	20950	5
1	819	21000	5
1	820	21050	5
1	821	21100	5
1	822	21150	5
1	823	21200	5
1	824	21250	5
1	825	21300	5
1	826	21350	5
1	827	21400	5
1	828	21450	5
1	829	21500	5
1	830	21550	5
1	831	21600	5
1	832	21650	5
1	833	21700	5
1	834	21750	5
1	835	21800	5
1	836	21850	5
1	837	21900	5
1	838	21950	5
1	839	22000	5
1	840	22050	5
1	841	22100	5
1	842	22150	5
1	843	22200	5
1	844	22250	5
1	845	22300	5
1	846	22350	5
1	847	22400	5
1	848	22450	5
1	849	22500	5
1	850	22550	5
1	851	22600	5
1	852	22650	5
1	853	22700	5
1	854	22750	5
1	855	22800	5
1	856	22850	5
1	857	22900	5
1	858	22950	5
1	859	23000	5
1	860	23050	5
1	861	23100	5
1	862	23150	5
1	863	23200	5
1	864	23250	5
1	865	23300	5
1	866	23350	5
1	867	23400	5
1	868	23450	5
1	869	23500	5
1	870	23550	5
1	871	23600	5
1	872	23650	5
1	873	23700	5
1	874	23750	5
1	875	23800	5
1	876	23850	5
1	877	23900	5
1	878	23950	5
1	879	24000	5
1	880	24050	5
1	881	24100	5
1	882	24150	5
1	883	24200	5
1	884	24250	5
1	885	24300	5
1	886	24350	5
1	887	24400	5
1	888	24450	5
1	889	24500	5
1	890	24550	5
1	891	24600	5
1	892	24650	5
1	893	24700	5
1	894	24750	5
1	895	24800	5
1	896	24850	5
1	897	24900	5
1	898	24950	5
1	899	25000	5
1	900	25050	5
1	901	25100	5
1	902	25150	5
1	903	25200	5
1	904	25250	5
1	905	25300	5
1	906	25350	5
1	907	25400	5
1	908	25450	5
1	909	25500	5
1	910	25550	5
1	911	25600	5
1	912	25650	5
1	913	25700	5
1	914	25750	5
1	915	25800	5
1	916	25850	5
1	917	25900	5
1	918	25950	5
1	919	26000	5
1	920	26050	5
1	921	26100	5
1	922	26150	5
1	923	26200	5
1	924	26250	5
1	925	26300	5
1	926	26350	5
1	927	26400	5
1	928	26450	5
1	929	26500	5
1	930	26550	5
1	931	26600	5
1	932	26650	5
1	933	26700	5
1	934	26750	5
1	935	26800	5
1	936	26850	5
1	937	26900	5
1	938	26950	5
1	939	27000	5
1	940	27050	5
1	941	27100	5
1	942	27150	5
1	943	27200	5
1	944	27250	5
1	945	27300	5
1	946	27350	5
1	947	27400	5
1	948	27450	5
1	949	27500	5
1	950	27550	5
1	951	27600	5
1	952	27650	5
1	953	27700	5
1	954	27750	5
1	955	27800	5
1	956	27850	5
1	957	27900	5
1	958	27950	5
1	959	28000	5
1	960	28050	5
1	961	28100	5
1	962	28150	5
1	963	28200	5
1	964	28250	5
1	965	28300	5
1	966	28350	5
1	967	28400	5
1	968	28450	5
1	969	28500	5
1	970	28550	5
1	971	28600	5
1	972	28650	5
1	973	28700	5
1	974	28750	5
1	975	28800	5
1	976	28850	5
1	977	28900	5
1	978	28950	5
1	979	29000	5
1	980	29050	5
1	981	29100	5
1	982	29150	5
1	983	29200	5
1	984	29250	5
1	985	29300	5
1	986	29350	5
1	987	29400	5
1	988	29450	5
1	989	29500	5
1	990	29550	5
1	991	29600	5
1	992	29650	5
1	993	29700	5
1	994	29750	5
1	995	29800	5
1	996	29850	5
1	997	29900	5
1	998	29950	5
1	999	30000	5
1	1000	30050	5
1	1001	30100	5
1	1002	30150	5
1	1003	30200	5
1	1004	30250	5
1	1005	30300	5
1	1006	30350	5
1	1007	30400	5
1	1008	30450	5
1	1009	30500	5
1	1010	30550	5
1	1011	30600	5
1	1012	30650	5
1	1013	30700	5
1	1014	30750	5
1	1015	30800	5
1	1016	30850	5
1	1017	30900	5
1	1018	30950	5
1	1019	31000	5
1	1020	31050	5
1	1021	31100	5
1	1022	31150	5
1	1023	31200	5
1	1024	31250	5
1	1025	31300	5
1	1026	31350	5
1	1027	31400	5
1	1028	31450	5
1	1029	31500	5
1	1030	31550	5
1	1031	31600	5
1	1032	31650	5
1	1033	31700	5
1	1034	31750	5
1	1035	31800	5
1	1036	31850	5
1	1037	31900	5
1	1038	31950	5
1	1039	32000	5
1	1040	32050	5
1	1041	32100	5
1	1042	32150	5
1	1043	32200	5
1	1044	32250	5
1	1045	32300	5
1	1046	32350	5
1	1047	32400	5
1	1048	32450	5
1	1049	32500	5
1	1050	32550	5
1	1051	32600	5
1	1052	32650	5
1	1053	32700	5
1	1054	32750	5
1	1055	32800	5
1	1056	32850	5
1	1057	32900	5
1	1058	32950	5
1	1059	33000	5
1	1060	33050	5
1	1061	33100	5
1	1062	33150	5
1	1063	33200	5
1	1064	33250	5
1	1065	33300	5
1	1066	33350	5
1	1067	33400	5
1	1068	33450	5
1	1069	33500	5
1	1070	33550	5
1	1071	33600	5
1	1072	33650	5
1	1073	33700	5
1	1074	33750	5
1	1075	33800	5
1	1076	33850	5
1	1077	33900	5
1	1078	33950	5
1	1079	34000	5
1	1080	34050	5
1	1081	34100	5
1	1082	34150	5
1	1083	34200	5
1	1084	34250	5
1	1085	34300	5
1	1086	34350	5
1	1087	34400	5
1	1088	34450	5
1	1089	34500	5
1	1090	34550	5
1	1091	34600	5
1	1092	34650	5
1	1093	34700	5
1	1094	34750	5
1	1095	34800	5
1	1096	34850	5
1	1097	34900	5
1	1098	34950	5
1	1099	35000	5
1	1100	35050	5
1	1101	35100	5
1	1102	35150	5
1	1103	35200	5
1	1104	35250	5
1	1105	35300	5
1	1106	35350	5
1	1107	35400	5
1	1108	35450	5
1	1109	35500	5
1	1110	35550	5
1	1111	35600	5
1	1112	35650	5
1	1113	35700	5
1	1114	35750	5
1	1115	35800	5
1	1116	35850	5
1	1117	35900	5
1	1118	35950	5
1	1119	36000	5
1	1120	36050	5
1	1121	36100	5
1	1122	36150	5
1	1123	36200	5
1	1124	36250	5
1	1125	36300	5
1	1126	36350	5
1	1127	36400	5
1	1128	36450	5
1	1129	36500	5
1	1130	36550	5
1	1131	36600	5
1	1132	36650	5
1	1133	36700	5
1	1134	36750	5
1	1135	36800	5
1	1136	36850	5
1	1137	36900	5
1	1138	36950	5
1	1139	37000	5
1	1140	37050	5
1	1141	37100	5
1	1142	37150	5
1	1143	37200	5
1	1144	37250	5
1	1145	37300	5
1	1146	37350	5
1	1147	37400	5
1	1148	37450	5
1	1149	37500	5
1	1150	37550	5
1	1151	37600	5
1	1152	37650	5
1	1153	37700	5
1	1154	37750	5
1	1155	37800	5
1	1156	37850	5
1	1157	37900	5
1	1158	37950	5
1	1159	38000	5
1	1160	38050	5
1	1161	38100	5
1	1162	38150	5
1	1163	38200	5
1	1164	38250	5
1	1165	38300	5
1	1166	38350	5
1	1167	38400	5
1	1168	38450	5
1	1169	38500	5
1	1170	38550	5
1	1171	38600	5
1	1172	38650	5
1	1173	38700	5
1	1174	38750	5
1	1175	38800	5
1	1176	38850	5
1	1177	38900	5
1	1178	38950	5
1	1179	39000	5
1	1180	39050	5
1	1181	39100	5
1	1182	39150	5
1	1183	39200	5
1	1184	39250	5
1	1185	39300	5
1	1186	39350	5
1	1187	39400	5
1	1188	39450	5
1	1189	39500	5
1	1190	39550	5
1	1191	39600	5
1	1192	39650	5
1	1193	39700	5
1	1194	39750	5
1	1195	39800	5
1	1196	39850	5
1	1197	39900	5
1	1198	39950	5
1	1199	40000	5
1	1200	40050	5
1	1201	40100	5
1	1202	40150	5
1	1203	40200	5
1	1204	40250	5
1	1205	40300	5
1	1206	40350	5
1	1207	40400	5
1	1208	40450	5
1	1209	40500	5
1	1210	40550	5
1	1211	40600	5
1	1212	40650	5
1	1213	40700	5
1	1214	40750	5
1	1215	40800	5
1	1216	40850	5
1	1217	40900	5
1	1218	40950	5
1	1219	41000	5
1	1220	41050	5
1	1221	41100	5
1	1222	41150	5
1	1223	41200	5
1	1224	41250	5
1	1225	41300	5
1	1226	41350	5
1	1227	41400	5
1	1228	41450	5
1	1229	41500	5
1	1230	41550	5
1	1231	41600	5
1	1232	41650	5
1	1233	41700	5
1	1234	41750	5
1	1235	41800	5
1	1236	41850	5
1	1237	41900	5
1	1238	41950	5
1	1239	42000	5
1	1240	42050	5
1	1241	42100	5
1	1242	42150	5
1	1243	42200	5
1	1244	42250	5
1	1245	42300	5
1	1246	42350	5
1	1247	42400	5
1	1248	42450	5
1	1249	42500	5
1	1250	42550	5
1	1251	42600	5
1	1252	42650	5
1	1253	42700	5
1	1254	42750	5
1	1255	42800	5
1	1256	42850	5
1	1257	42900	5
1	1258	42950	5
1	1259	43000	5
1	1260	43050	5
1	1261	43100	5
1	1262	43150	5
1	1263	43200	5
1	1264	43250	5
1	1265	43300	5
1	1266	43350	5
1	1267	43400	5
1	1268	43450	5
1	1269	43500	5
1	1270	43550	5
1	1271	43600	5
1	1272	43650	5
1	1273	43700	5
1	1274	43750	5
1	1275	43800	5
1	1276	43850	5
1	1277	43900	5
1	1278	43950	5
1	1279	44000	5
1	1280	44050	5
1	1281	44100	5
1	1282	44150	5
1	1283	44200	5
1	1284	44250	5
1	1285	44300	5
1	1286	44350	5
1	1287	44400	5
1	1288	44450	5
1	1289	44500	5
1	1290	44550	5
1	1291	44600	5
1	1292	44650	5
1	1293	44700	5
1	1294	44750	5
1	1295	44800	5
1	1296	44850	5
1	1297	44900	5
1	1298	44950	5
1	1299	45000	5
1	1300	45050	5
1	1301	45100	5
1	1302	45150	5
1	1303	45200	5
1	1304	45250	5
1	1305	45300	5
1	1306	45350	5
1	1307	45400	5
1	1308	45450	5
1	1309	45500	5
1	1310	45550	5
1	1311	45600	5
1	1312	45650	5
1	1313	45700	5
1	1314	45750	5
1	1315	45800	5
1	1316	45850	5
1	1317	45900	5
1	1318	45950	5
1	1319	46000	5
1	1320	46050	5
1	1321	46100	5
1	1322	46150	5
1	1323	46200	5
1	1324	46250	5
1	1325	46300	5
1	1326	46350	5
1	1327	46400	5
1	1328	46450	5
1	1329	46500	5
1	1330	46550	5
1	1331	46600	5
1	1332	46650	5
1	1333	46700	5
1	1334	46750	5
1	1335	46800	5
1	1336	46850	5
1	1337	46900	5
1	1338	46950	5
1	1339	47000	5
1	1340	47050	5
1	1341	47100	5
1	1342	47150	5
1	1343	47200	5
1	1344	47250	5
1	1345	47300	5
1	1346	47350	5
1	1347	47400	5
1	1348	47450	5
1	1349	47500	5
1	1350	47550	5
1	1351	47600	5
1	1352	47650	5
1	1353	47700	5
1	1354	47750	5
1	1355	47800	5
1	1356	47850	5
1	1357	47900	5
1	1358	47950	5
1	1359	48000	5
1	1360	48050	5
1	1361	48100	5
1	1362	48150	5
1	1363	48200	5
1	1364	48250	5
1	1365	48300	5
1	1366	48350	5
1	1367	48400	5
1	1368	48450	5
1	1369	48500	5
1	1370	48550	5
1	1371	48600	5
1	1372	48650	5
1	1373	48700	5
1	1374	48750	5
1	1375	48800	5
1	1376	48850	5
1	1377	48900	5
1	1378	48950	5
1	1379	49000	5
1	1380	49050	5
1	1381	49100	5
1	1382	49150	5
1	1383	49200	5
1	1384	49250	5
1	1385	49300	5
1	1386	49350	5
1	1387	49400	5
1	1388	49450	5
1	1389	49500	5
1	1390	49550	5
1	1391	49600	5
1	1392	49650	5
1	1393	49700	5
1	1394	49750	5
1	1395	49800	5
1	1396	49850	5
1	1397	49900	5
1	1398	49950	5
1	1399	50000	5
1	1400	50050	5
1	1401	50100	5
1	1402	50150	5
1	1403	50200	5
1	1404	50250	5
1	1405	50300	5
1	1406	50350	5
1	1407	50400	5
1	1408	50450	5
1	1409	50500	5
1	1410	50550	5
1	1411	50600	5
1	1412	50650	5
1	1413	50700	5
1	1414	50750	5
1	1415	50800	5
1	1416	50850	5
1	1417	50900	5
1	1418	50950	5
1	1419	51000	5
1	1420	51050	5
1	1421	51100	5
1	1422	51150	5
1	1423	51200	5
1	1424	51250	5
1	1425	51300	5
1	1426	51350	5
1	1427	51400	5
1	1428	51450	5
1	1429	51500	5
1	1430	51550	5
1	1431	51600	5
1	1432	51650	5
1	1433	51700	5
1	1434	51750	5
1	1435	51800	5
1	1436	51850	5
1	1437	51900	5
1	1438	51950	5
1	1439	52000	5
1	1440	52050	5
1	1441	52100	5
1	1442	52150	5
1	1443	52200	5
1	1444	52250	5
1	1445	52300	5
1	1446	52350	5
1	1447	52400	5
1	1448	52450	5
1	1449	52500	5
1	1450	52550	5
1	1451	52600	5
1	1452	52650	5
1	1453	52700	5
1	1454	52750	5
1	1455	52800	5
1	1456	52850	5
1	1457	52900	5
1	1458	52950	5
1	1459	53000	5
1	1460	53050	5
1	1461	53100	5
1	1462	53150	5
1	1463	53200	5
1	1464	53250	5
1	1465	53300	5
1	1466	53350	5
1	1467	53400	5
1	1468	53450	5
1	1469	53500	5
1	1470	53550	5
1	1471	53600	5
1	1472	53650	5
1	1473	53700	5
1	1474	53750	5
1	1475	53800	5
1	1476	53850	5
1	1477	53900	5
1	1478	53950	5
1	1479	54000	5
1	1480	54050	5
1	1481	54100	5
1	1482	54150	5
1	1483	54200	5
1	1484	54250	5
1	1485	54300	5
1	1486	54350	5
1	1487	54400	5
1	1488	54450	5
1	1489	54500	5
1	1490	54550	5
1	1491	54600	5
1	1492	54650	5
1	1493	54700	5
1	1494	54750	5
1	1495	54800	5
1	1496	54850	5
1	1497	54900	5
1	1498	54950	5
1	1499	55000	5
1	1500	55050	5
1	1501	55100	5
1	1502	55150	5
1	1503	55200	5
1	1504	55250	5
1	1505	55300	5
1	1506	55350	5
1	1507	55400	5
1	1508	55450	5
1	1509	55500	5
1	1510	55550	5
1	1511	55600	5
1	1512	55650	5
1	1513	55700	5
1	1514	55750	5
1	1515	55800	5
1	1516	55850	5
1	1517	55900	5
1	1518	55950	5
1	1519	56000	5
1	1520	56050	5
1	1521	56100	5
1	1522	56150	5
1	1523	56200	5
1	1524	56250	5
1	1525	56300	5
1	1526	56350	5
1	1527	56400	5
1	1528	56450	5
1	1529	56500	5
1	1530	56550	5
1	1531	56600	5
1	1532	56650	5
1	1533	56700	5
1	1534	56750	5
1	1535	56800	5
1	1536	56850	5
1	1537	56900	5
1	1538	56950	5
1	1539	57000	5
1	1540	57050	5
1	1541	57100	5
1	1542	57150	5
1	1543	57200	5
1	1544	57250	5
1	1545	57300	5
1	1546	57350	5
1	1547	57400	5
1	1548	57450	5
1	1549	57500	5
1	1550	57550	5
1	1551	57600	5
1	1552	57650	5
1	1553	57700	5
1	1554	57750	5
1	1555	57800	5
1	1556	57850	5
1	1557	57900	5
1	1558	57950	5
1	1559	58000	5
1	1560	58050	5
1	1561	58100	5
1	1562	58150	5
1	1563	58200	5
1	1564	58250	5
1	1565	58300	5
1	1566	58350	5
1	1567	58400	5
1	1568	58450	5
1	1569	58500	5
1	1570	58550	5
1	1571	58600	5
1	1572	58650	5
1	1573	58700	5
1	1574	58750	5
1	1575	58800	5
1	1576	58850	5
1	1577	58900	5
1	1578	58950	5
1	1579	59000	5
1	1580	59050	5
1	1581	59100	5
1	1582	59150	5
1	1583	59200	5
1	1584	59250	5
1	1585	59300	5
1	1586	59350	5
1	1587	59400	5
1	1588	59450	5
1	1589	59500	5
1	1590	59550	5
1	1591	59600	5
1	1592	59650	5
1	1593	59700	5
1	1594	59750	5
1	1595	59800	5
1	1596	59850	5
1	1597	59900	5
1	1598	59950	5
1	1599	60000	5
1	1600	60050	5
