version 2
run Projekt-0-20170625-15:19:46-4808
attr N 10
attr configname Projekt
attr datetime 20170625-15:19:46
attr experiment Projekt
attr inifile VADs_Example.ini
attr iterationvars $N=10
attr iterationvars2 "$N=10, $repetition=0"
attr measurement $N=10
attr network oversim.underlay.simpleunderlay.SimpleUnderlayNetwork
attr processid 4808
attr repetition 0
attr replication #0
attr resultdir results
attr runnumber 0
attr seedset 0

vector 1  SimpleUnderlayNetwork.globalObserver.globalStatistics  "GlobalNodeList: Number of nodes"  ETV
1	105	50	5
1	111	100	5
1	117	150	5
1	123	200	5
1	134	250	5
1	140	300	5
1	146	350	5
1	152	400	5
1	163	450	5
1	169	500	5
1	175	550	5
1	181	600	5
1	192	650	5
1	198	700	5
1	204	750	5
1	210	800	5
1	221	850	5
1	227	900	5
1	233	950	5
1	239	1000	5
1	250	1050	5
1	256	1100	5
1	262	1150	5
1	268	1200	5
1	279	1250	5
1	285	1300	5
1	291	1350	5
1	297	1400	5
1	308	1450	5
1	314	1500	5
1	320	1550	5
1	326	1600	5
1	337	1650	5
1	343	1700	5
1	349	1750	5
1	355	1800	5
1	366	1850	5
1	372	1900	5
1	378	1950	5
1	384	2000	5
1	395	2050	5
1	401	2100	5
1	407	2150	5
1	413	2200	5
1	424	2250	5
1	430	2300	5
1	436	2350	5
1	442	2400	5
1	453	2450	5
1	459	2500	5
1	465	2550	5
1	471	2600	5
1	482	2650	5
1	488	2700	5
1	494	2750	5
1	500	2800	5
1	511	2850	5
1	517	2900	5
1	523	2950	5
1	529	3000	5
1	540	3050	5
1	546	3100	5
1	552	3150	5
1	558	3200	5
1	569	3250	5
1	575	3300	5
1	581	3350	5
1	587	3400	5
1	598	3450	5
1	604	3500	5
1	610	3550	5
1	616	3600	5
1	627	3650	5
1	633	3700	5
1	639	3750	5
1	645	3800	5
1	656	3850	5
1	662	3900	5
1	668	3950	5
1	674	4000	5
1	685	4050	5
1	691	4100	5
1	697	4150	5
1	703	4200	5
1	714	4250	5
1	720	4300	5
1	726	4350	5
1	732	4400	5
1	743	4450	5
1	749	4500	5
1	755	4550	5
1	761	4600	5
1	772	4650	5
1	778	4700	5
1	784	4750	5
1	790	4800	5
1	801	4850	5
1	807	4900	5
1	813	4950	5
1	819	5000	5
1	830	5050	5
1	836	5100	5
1	842	5150	5
1	848	5200	5
1	859	5250	5
1	865	5300	5
1	871	5350	5
1	877	5400	5
1	888	5450	5
1	894	5500	5
1	900	5550	5
1	906	5600	5
1	917	5650	5
1	923	5700	5
1	929	5750	5
1	935	5800	5
1	946	5850	5
1	952	5900	5
1	958	5950	5
1	964	6000	5
1	975	6050	5
1	981	6100	5
1	987	6150	5
1	993	6200	5
1	1004	6250	5
1	1010	6300	5
1	1016	6350	5
1	1022	6400	5
1	1033	6450	5
1	1039	6500	5
1	1045	6550	5
1	1051	6600	5
1	1062	6650	5
1	1068	6700	5
1	1074	6750	5
1	1080	6800	5
1	1091	6850	5
1	1097	6900	5
1	1103	6950	5
1	1109	7000	5
1	1120	7050	5
1	1126	7100	5
1	1132	7150	5
1	1138	7200	5
1	1149	7250	5
1	1155	7300	5
1	1161	7350	5
1	1167	7400	5
1	1178	7450	5
1	1184	7500	5
1	1190	7550	5
1	1196	7600	5
1	1207	7650	5
1	1213	7700	5
1	1219	7750	5
1	1225	7800	5
1	1236	7850	5
1	1242	7900	5
1	1248	7950	5
1	1254	8000	5
1	1265	8050	5
1	1271	8100	5
1	1277	8150	5
1	1283	8200	5
1	1294	8250	5
1	1300	8300	5
1	1306	8350	5
1	1312	8400	5
1	1323	8450	5
1	1329	8500	5
1	1335	8550	5
1	1341	8600	5
1	1352	8650	5
1	1358	8700	5
1	1364	8750	5
1	1370	8800	5
1	1381	8850	5
1	1387	8900	5
1	1393	8950	5
1	1399	9000	5
1	1410	9050	5
1	1416	9100	5
1	1422	9150	5
1	1428	9200	5
1	1439	9250	5
1	1445	9300	5
1	1451	9350	5
1	1457	9400	5
1	1468	9450	5
1	1474	9500	5
1	1480	9550	5
1	1486	9600	5
1	1497	9650	5
1	1503	9700	5
1	1509	9750	5
1	1515	9800	5
1	1526	9850	5
1	1532	9900	5
1	1538	9950	5
1	1544	10000	5
1	1555	10050	5
1	1561	10100	5
1	1567	10150	5
1	1573	10200	5
1	1584	10250	5
1	1590	10300	5
1	1596	10350	5
1	1602	10400	5
1	1613	10450	5
1	1619	10500	5
1	1625	10550	5
1	1631	10600	5
1	1642	10650	5
1	1648	10700	5
1	1654	10750	5
1	1660	10800	5
1	1671	10850	5
1	1677	10900	5
1	1683	10950	5
1	1689	11000	5
1	1700	11050	5
1	1706	11100	5
1	1712	11150	5
1	1718	11200	5
1	1729	11250	5
1	1735	11300	5
1	1741	11350	5
1	1747	11400	5
1	1758	11450	5
1	1764	11500	5
1	1770	11550	5
1	1776	11600	5
1	1787	11650	5
1	1793	11700	5
1	1799	11750	5
1	1805	11800	5
1	1816	11850	5
1	1822	11900	5
1	1828	11950	5
1	1834	12000	5
1	1845	12050	5
1	1851	12100	5
1	1857	12150	5
1	1863	12200	5
1	1874	12250	5
1	1880	12300	5
1	1886	12350	5
1	1892	12400	5
1	1903	12450	5
1	1909	12500	5
1	1915	12550	5
1	1921	12600	5
1	1932	12650	5
1	1938	12700	5
1	1944	12750	5
1	1950	12800	5
1	1961	12850	5
1	1967	12900	5
1	1973	12950	5
1	1979	13000	5
1	1990	13050	5
1	1996	13100	5
1	2002	13150	5
1	2008	13200	5
1	2019	13250	5
1	2025	13300	5
1	2031	13350	5
1	2037	13400	5
1	2048	13450	5
1	2054	13500	5
1	2060	13550	5
1	2066	13600	5
1	2077	13650	5
1	2083	13700	5
1	2089	13750	5
1	2095	13800	5
1	2106	13850	5
1	2112	13900	5
1	2118	13950	5
1	2124	14000	5
1	2135	14050	5
1	2141	14100	5
1	2147	14150	5
1	2153	14200	5
1	2164	14250	5
1	2170	14300	5
1	2176	14350	5
1	2182	14400	5
1	2193	14450	5
1	2199	14500	5
1	2205	14550	5
1	2211	14600	5
1	2222	14650	5
1	2228	14700	5
1	2234	14750	5
1	2240	14800	5
1	2251	14850	5
1	2257	14900	5
1	2263	14950	5
1	2269	15000	5
1	2280	15050	5
1	2286	15100	5
1	2292	15150	5
1	2298	15200	5
1	2309	15250	5
1	2315	15300	5
1	2321	15350	5
1	2327	15400	5
1	2338	15450	5
1	2344	15500	5
1	2350	15550	5
1	2356	15600	5
1	2367	15650	5
1	2373	15700	5
